140
Lattice="10.94258785 0.0 0.0 0.0 19.34536362 0.0 0.0 0.0 10.94258785" Properties=species:S:1:pos:R:3:forces:R:3:magmoms:R:1 energy=-847.44147725 stress="-0.04342248841158475 0.0007015830435964878 -0.008904940694288778 0.0007015830435964878 -0.038333674223340664 0.004595892777616044 -0.008904940694288778 0.004595892777616044 -0.01845062786850522" dipole="_JSON [[0.0, 0.0, 0.0]]" magmom=0.0 free_energy=-847.44607765 pbc="T T T"
O        4.79779994       1.12223471       2.26088102      -2.25125776       1.54699898      -3.09939627       0.00000000
O        2.45094739       0.80952966       3.44435535      -1.93864959       1.14178244      -0.29187343       0.00000000
O        0.78110624       1.88017442      -0.31587914     -15.73620467      -2.86427123      10.69565605       0.00000000
O        3.35166633       2.19339834      -0.27883585       8.60561233       1.95863184       6.24275678       0.00000000
O        5.22025488       3.65138785       1.46789093      -0.53343160      -0.79372866      -0.47740686       0.00000000
O        1.83684634       3.69121313       3.76129880       0.66721129      -5.78162168       0.81914905       0.00000000
O        1.95744544       5.08446336       1.89639373      -2.31191885       0.08522920      -1.77657729       0.00000000
O        5.08453346       4.64117939       3.93617913       2.27710404       0.52983223      -1.51129556       0.00000000
O        3.32956174       6.17961562      -0.01016476       3.99897798      -0.48201015      -2.82921113       0.00000000
O        0.55180398       6.55869283       0.05134513      11.92068068       2.31783076       7.48821879       0.00000000
O        2.33395803       7.60328254       1.97031787      -1.49558928      -2.23449464      -2.55112103       0.00000000
O        4.63723427       7.34837745       3.52018275       0.54231262       0.59019646      -1.38834212       0.00000000
O        4.60307434       0.96783768       7.36699580      -2.18607851      -1.15572559       2.34168373       0.00000000
O        2.18325825       0.97292057       9.23603543       1.63147355      -3.25260406      -4.52022214       0.00000000
O        0.54657458       1.82958339       5.58550817       4.23364733      -1.15460987      -3.83072879       0.00000000
O        3.36656522       2.10027215       5.46642622       5.19513604       1.28285304       3.85998563       0.00000000
O        5.17638594       3.42776895       7.22942089       0.73192369       5.72293226       3.63127271       0.00000000
O        1.73699201       3.50843913       8.97536000      11.93720899      -7.99999576      10.51645303       0.00000000
O        1.77983938       4.99847865       7.30840140      -0.41987733      -0.39007430       0.03233147       0.00000000
O        5.05593703       4.93740770       9.53136912       1.58415336      -1.68220367      -2.63940078       0.00000000
O        3.52826109       6.08163007       5.59861204       0.76665691       0.52795685      -0.70418078       0.00000000
O        0.80921660       6.86344293       5.68159550      -9.07356433       0.85313953      -5.96650157       0.00000000
O        2.25867782       7.70717963       7.33356656       1.92488105      -0.24320362       1.07369670       0.00000000
O        4.36351283       7.32750694       9.00064786      -0.55229215       6.67217394      -7.96482432       0.00000000
O        9.95415036       1.17111560       2.16868326       5.19484178       3.40080384      -1.66435498       0.00000000
O        7.97642397       0.84113251       3.38597939      -8.53392638       7.96380217       6.13418535       0.00000000
O        6.07611977       1.75878441      -0.01606889      -9.22840307      -0.70942449       5.05853783       0.00000000
O        8.85854194       1.89292480       0.08100373       0.55879899       0.90484694       0.59385769       0.00000000
O       10.73358926       3.62124811       1.60379663      -3.49054165      -5.28154195      -4.93186523       0.00000000
O        7.46222524       3.45828260       3.55386373       1.48461816      -1.00106793       0.35655407       0.00000000
O        7.29225012       5.32145345       1.85412928      -4.06255479     -10.43319739       8.24045761       0.00000000
O       10.74299488       4.81070971       3.89379265      -3.51293197       2.64092128       3.28532722       0.00000000
O        9.07215954       5.84388145       0.09335105      -1.32710856       2.06411636       0.10795190       0.00000000
O        6.14657792       6.89045923       0.24166638      -1.25622670      -1.22318146      -3.13521665       0.00000000
O        7.77056751       7.55873827       2.01603463      -2.38061614      -2.55352681      -2.99321115       0.00000000
O       10.24352185       7.19953862       3.32015972      -1.69263291       1.78231454      -0.18050061       0.00000000
O       10.22013346       1.15329227       7.82791109      -0.59395493       0.41031954      -2.29759489       0.00000000
O        7.76354186       0.86032175       9.00909454       0.29646184      -1.46113834      -0.60685294       0.00000000
O        6.12767662       1.73182749       5.58261248       5.43743787       0.18802879      -5.03192492       0.00000000
O        8.76179392       2.57006817       5.73097383      -0.48664859      -1.23651265      -1.69827812       0.00000000
O       10.66774744       3.59136389       7.26672453      -7.44623373      -6.06092582      -8.08037998       0.00000000
O        7.50815539       3.49933259       9.06864772      -3.94873350      -1.88668605       2.66846416       0.00000000
O        7.24406520       4.94918066       7.35210482       2.38252958       5.15091799      -5.04352114       0.00000000
O       10.53586673       4.86406859       9.41598241       2.34763564       0.58499078      -0.83191044       0.00000000
O        8.71052550       6.16298970       5.17593950       3.31563868      -0.95237029      -1.01826196       0.00000000
O        6.30227081       6.47628056       5.39589851      -1.37589388       1.47588689      -0.68928779       0.00000000
O        7.76583406       7.35368921       7.26206426       1.77876307       7.06306387       7.52976076       0.00000000
O       10.20432593       7.27415722       8.71038315      -1.96312216       1.31803299       1.01440701       0.00000000
Si       3.53452883      -0.13848841       2.65073282       2.23325549       1.53648445       0.88667308       0.00000000
Si       4.60797320       2.28084989       0.80654819       2.74734592      -3.52200052       1.67335888       0.00000000
Si       2.25225106       1.99121101       4.49668995      -6.80835498       4.14861685      -2.55968796       0.00000000
Si       0.58959188       4.18805246       2.72746823       8.70016597       2.60695764       2.45511031       0.00000000
Si       2.04264630       6.24164581       0.69030969      -6.18049145       0.98845788       8.84080517       0.00000000
Si       4.96546456       6.33410383       4.64820055      -5.12956896      -6.42770442      -0.03894059       0.00000000
Si      -0.60465933       9.52396806       1.04506413      -0.99689161      -0.56187355      -0.33439918       0.00000000
Si       3.51703649       8.25493374       2.77393347       0.92137544       2.34187041      -0.49825184       0.00000000
Si       1.31435440      10.12413888       2.09328498      -0.89709737      -1.30785138       2.15162573       0.00000000
Si       3.46756225      10.00086454       4.40927859      -0.62117582       0.44512203      -0.47146013       0.00000000
Si      -0.98651262      11.27694379       2.61978955      -0.25945516       1.16987840       0.68621033       0.00000000
Si       1.96903167      11.20340649       0.35933220      -2.33642164      -0.39232237      -4.92379827       0.00000000
Si       0.51442565      12.67771898       4.15249201       3.21934741      -5.31947125      -3.97870185       0.00000000
Si       3.41398277      12.46882863       1.12452589       0.22213974       0.92111017       4.75177060       0.00000000
Si      -0.89744153      13.87185373      -0.12006023       3.22273782       2.28094803      -2.23989353       0.00000000
Si       1.83961093      13.78611959       2.68367342       2.29639757      -0.44827140       0.10104979       0.00000000
Si       0.68275951      15.25614918       1.43675893       0.03151439      -1.50006487      -2.20737353       0.00000000
Si       3.31650846      14.96717563       4.19099175      -2.42344463       2.17115357      -2.27201339       0.00000000
Si      -0.67571146      16.44252452       2.59763577      -2.45996601       1.05188839       2.03829112       0.00000000
Si       1.85506713      16.29044911      -0.28386065       0.05839078       1.40405366       2.02149411       0.00000000
Si       1.33275734      17.62107844       3.35702574      -1.55052598       0.17626723       0.36354144       0.00000000
Si       3.48653548      17.64330134       1.07752635      -0.71429895      -1.19729046      -1.70844769       0.00000000
Si      -0.67854945      -1.03052299      -1.04286865      -0.03146293      -1.10192224       1.62402383       0.00000000
Si       3.31865466       0.13538552       8.37034161       2.28337427      -0.79808513      -1.42293018       0.00000000
Si       4.88960602       2.23200446       6.36347460      -3.86253510      -3.73349646      -0.46186753       0.00000000
Si       1.99253396       2.28315967      10.08388823       4.65851710       4.68633038      -9.48864047       0.00000000
Si       0.70489622       4.01509208       8.21310874      -6.86026111      13.06982326      -0.81514634       0.00000000
Si       1.95567934       6.19385725       6.32163052       8.26333837       0.80635258       4.09683561       0.00000000
Si       4.59322663       6.37411685       9.99588984       6.06653291      -6.22340777      10.14828269       0.00000000
Si      -0.72539756       9.48835700       6.37575820      -0.89399374      -0.13299896      -0.16751005       0.00000000
Si       3.62166714       8.49494685       8.15899381      -4.70554705      -0.85759988      -0.79689340       0.00000000
Si       1.21330657      10.24763588       7.24275136      -1.81845057      -2.75121053       4.41373612       0.00000000
Si       3.50696322      10.10505677       9.91057725      -0.62802266      -0.59259172      -0.29642856       0.00000000
Si      -0.93018480      11.40873074       8.20652163       1.07535858      -1.72800258       0.80861381       0.00000000
Si       1.82550215      11.29680088       5.62533347       1.55431109       2.31381167      -4.78818000       0.00000000
Si       0.67032750      12.59524943       9.40557717      -0.42497836      -0.83365268       1.78235545       0.00000000
Si       3.36480465      12.45914065       6.88957034      -1.24015263       3.10641127      -2.51604995       0.00000000
Si      -0.54333682      13.93343777       5.23892795      -3.59161992       2.83019299       5.41279461       0.00000000
Si       2.02890558      13.93606921       8.17038016      -0.77481119      -1.39323975      -1.64972635       0.00000000
Si       0.55317601      15.21389895       6.93296657       1.50254020      -0.09881929      -1.94233548       0.00000000
Si       3.27019571      15.10197066       9.47637752       3.14017054       0.07921749       0.61336947       0.00000000
Si      -0.88095631      16.43809944       8.04800509      -1.21114906       0.49745004       2.22213337       0.00000000
Si       1.89655731      16.73534774       5.37322822      -4.25268196      -4.61406117      -1.87035515       0.00000000
Si       1.29452075      17.73149326       9.00890749      -0.43968288       0.06256665      -0.77396871       0.00000000
Si       3.35528791      17.76913621       6.22601389       4.47105461       2.70954124       4.88713755       0.00000000
Si      -0.83665222      -0.96238089       4.66198212       1.72039860      -0.75865451      -0.64544707       0.00000000
Si       9.11928319       0.10452671       2.86615648       3.85350953      -8.19773236      -0.92041112       0.00000000
Si      10.33994847       2.02564689       0.89043786      -1.30911327       3.28438809      -3.16289685       0.00000000
Si       7.69680126       2.23140040       4.51270812      -1.92631498      -4.94020349       2.90415127       0.00000000
Si       6.21819031       3.87704257       2.72230322      -3.27829683       8.63764472      -0.11591477       0.00000000
Si       7.63488063       6.16679137       0.75465021      -0.73395081       7.95432293      -3.77960763       0.00000000
Si      10.23745642       6.23796073       4.61750071       3.28579924       0.55193660      -1.73358037       0.00000000
Si       5.00262367       9.48457655       0.71496147      -3.23281492      -1.51917341      -0.81884162       0.00000000
Si       8.87705955       8.38503706       2.62227464       5.43298818       1.43188275       2.65704607       0.00000000
Si       6.57605435       9.99538865       1.89983357       4.31111317       0.85689865       0.82572759       0.00000000
Si       8.71971952      10.06719777       4.36942715       3.53221040      -2.37027509      -2.73417482       0.00000000
Si       4.76907932      11.15515161       2.65666826      -2.15246673       0.44144591       0.05578557       0.00000000
Si       7.43611555      11.14695807      -0.24775112      -1.79677214       2.03129561       2.77572914       0.00000000
Si       5.98929763      12.58106383       3.88002066      -0.32813995      -0.55004939       2.82871740       0.00000000
Si       8.74430715      12.91973064       1.15756017      -2.45207105      -3.63992341       2.84637451       0.00000000
Si       4.64018690      13.76727459       0.03647352       2.30204823       2.70644505      -2.40638669       0.00000000
Si       7.45142951      13.84891718       2.88366236      -0.54855017       0.64997605      -3.55933684       0.00000000
Si       6.00448580      15.39556595       1.26654799       0.64882332      -3.53859061       0.69823808       0.00000000
Si       8.69364516      14.93545014       4.27406611       3.36139745       0.24048188      -1.82930499       0.00000000
Si       4.63002580      16.29488838       2.64315120      -1.67068068       1.25702916       2.16206324       0.00000000
Si       7.26708041      16.57767502      -0.04139554       2.41334134       0.80413926       0.71668658       0.00000000
Si       6.64056395      17.57283412       3.44272440      -0.59477208       0.08128217       0.39958005       0.00000000
Si       9.05615038      17.88478694       1.15369155      -0.71127521      -1.30509075      -1.36334741       0.00000000
Si       4.84101719      -1.34683680      -0.93020355      -1.26727073       1.07333877      -0.63042895       0.00000000
Si       9.15507138       0.01065319       8.29941094      -2.99908501       1.27472059       0.52702066       0.00000000
Si      10.17459043       1.98936758       6.35338742       0.84219865       3.87245285       4.66546999       0.00000000
Si       7.28321476       1.93497854      10.17349844      12.00265291       4.14225216      -8.26925386       0.00000000
Si       6.11231478       4.49563574       8.25065615      -0.23271593      -6.84073114       3.11847291       0.00000000
Si       7.59431007       6.42098459       6.19985803      -1.73977934      -9.40407402      -1.07260198       0.00000000
Si      10.34254065       6.47486073      10.19570168      -9.42120116      -6.65125869     -11.38408939       0.00000000
Si       4.56346154       9.43324704       6.46683340       2.50925618       1.22981375      -0.83182736       0.00000000
Si       8.90709139       8.28881806       8.03799297       2.51809247       1.09097050       1.23145052       0.00000000
Si       6.72361717      10.07214080       7.46099996      -1.51625187      -0.77977827       0.78621420       0.00000000
Si       8.99423661       9.95563243       9.91315098       2.34111022      -1.63922468      -1.45252812       0.00000000
Si       4.53548266      11.31767656       8.20665003       2.19691885      -1.55272774       1.32950809       0.00000000
Si       7.42504027      11.05982496       5.63208559      -3.11776633       3.47352052       0.00539395       0.00000000
Si       6.07596302      12.56760175       9.49200139      -0.57787718      -0.40613586       0.36981561       0.00000000
Si       8.77243284      12.53932167       6.78783503      -0.18131786       2.09723704      -0.70592422       0.00000000
Si       4.71039357      14.01505565       5.44090535       2.17671767      -2.91021565       2.06177709       0.00000000
Si       7.39963488      14.00920488       8.34377149      -2.60670431      -6.19829955      -4.86146166       0.00000000
Si       6.18598830      15.13582967       6.96445995      -0.68621799       0.90459707      -2.75839842       0.00000000
Si       8.47941660      15.11279641       9.49217144       5.96367971       4.86256686       4.73237603       0.00000000
Si       4.67842119      16.42606784       7.98967587      -1.48790838       1.11918603       0.78743174       0.00000000
Si       7.49185555      16.32821597       5.26327825      -2.95405509       2.01329102       2.11371344       0.00000000
Si       6.79354423      17.64107348       9.03043179      -0.26855652       0.92139729      -1.94626732       0.00000000
Si       8.74949510      17.65838273       6.62457021       0.47194788       1.31636595      -0.16897483       0.00000000
Si       4.65297081      -1.05243185       4.46191847       1.33758362      -0.33079565      -1.14041506       0.00000000
140
Lattice="10.94258785 0.0 0.0 0.0 19.34536362 0.0 0.0 0.0 10.94258785" Properties=species:S:1:pos:R:3:forces:R:3:magmoms:R:1 energy=-774.82373014 stress="-0.05629366056094682 0.0013032719819350395 0.0034763489041669585 0.0013032719819350395 -0.10594199599869733 -0.0028088341769416988 0.0034763489041669585 -0.0028088341769416988 -0.08349200198864867" dipole="_JSON [[0.0, 0.0, 0.0]]" magmom=0.0 free_energy=-774.84378407 pbc="T T T"
O        4.28023645       1.07584701       2.35721112       2.00659426       1.74731590      -3.61597785       0.00000000
O        2.08133602       0.92316662       3.64579998       2.05077247     -18.94174884     -14.44505748       0.00000000
O        1.02492260       1.42451517       0.13391827      -3.57248203       3.60168102       0.04095026       0.00000000
O        3.43945797       2.33382522      -0.29039851       0.57609342      -0.86969887       0.40563020       0.00000000
O        5.15776451       3.61346094       1.42573064       2.04011931      -0.47136873       1.71349446       0.00000000
O        1.73560566       3.23631720       3.66162553       1.64893325       3.08481281      -2.57318712       0.00000000
O        1.41127136       5.32574991       1.95321795       2.29234683      -2.82217815       0.76706992       0.00000000
O        5.02216230       4.51503105       4.02334049       2.53084606       2.67399183      -3.01820830       0.00000000
O        3.81410302       6.09802262       0.33232425      -7.21162986      -1.10197035       2.62892869       0.00000000
O        0.48348690       7.00675604       0.28346028      -1.37192798      -3.64403263      -3.52122912       0.00000000
O        2.28330267       7.35932198       1.66956260       5.79446233      12.75574487       7.94346839       0.00000000
O        4.38823247       7.50363997       3.19883189       4.12776587      -5.90196954       3.59744895       0.00000000
O        4.22881572       0.72546386       7.22830046      -0.97992101      -4.96292786       6.57754579       0.00000000
O        1.88783304       0.72690124       8.90115392      -3.23468040       5.19162719       1.38500089       0.00000000
O        0.76334445       1.99494723       5.29927500      -7.11341315      -1.18774354       7.45294899       0.00000000
O        3.38392396       1.87861816       5.70722636      -4.92233806       2.70193078      -5.43025741       0.00000000
O        5.19234541       3.28175907       7.25521905       0.57635074       0.77723515       1.34070292       0.00000000
O        1.43838427       3.45578795       9.32311950      -0.17093330       6.37127837      -3.61650768       0.00000000
O        2.07587796       5.34577850       7.17409145      -3.98590500      -7.64858624       4.13886683       0.00000000
O        5.06510989       4.73739486       9.10085749       1.58792427       2.76649187       1.84515255       0.00000000
O        3.35962577       5.98843278       5.46385138      -0.72380242       2.25745869      -2.69695355       0.00000000
O        0.44065080       6.76235860       5.69952360       2.98518445       6.44286181       5.04495981       0.00000000
O        2.24962767       7.56814603       7.69483441      -1.52426215       0.01335960      -2.25942502       0.00000000
O        4.69972171       7.64505880       8.97805129       1.16107936      -3.40478231       2.56952803       0.00000000
O       10.35920254       1.18049914       2.24730300      -2.13655845      -1.37582434      -0.61870957       0.00000000
O        7.72974034       1.00659774       3.27318699       2.42083363      -2.54211454      -0.17107490       0.00000000
O        6.16525514       1.77507944      -0.07127063       4.99901926      -1.05360430      -1.04750461       0.00000000
O        9.10221950       2.53636013       0.23753291      -6.32104956      -0.77193982      -4.61854649       0.00000000
O       10.67848021       3.50017122       1.70424936       2.18736690       6.79103658       2.30380851       0.00000000
O        7.21592410       3.16617909       3.70617363      -9.85623311      16.75598300     -11.47019900       0.00000000
O        7.18054420       5.29894280       2.12200968       6.77251414       5.65149095      -3.83383665       0.00000000
O       10.74329287       4.85402267       3.34239560      -0.79431742       0.43675137       6.83578583       0.00000000
O        8.94135169       6.23721943      -0.17846134     -12.81672911      -0.67122250       9.73905821       0.00000000
O        6.06444919       6.52087603       0.12652652       7.46231884       0.87660365       2.60547349       0.00000000
O        7.91726323       7.59074920       2.03288166      -3.21891479      -3.37325312      -4.30344728       0.00000000
O       10.20013314       6.91806632       3.55353273      -3.64690674       6.77313159      -3.55643040       0.00000000
O       10.00071898       1.14024553       7.60947627      -1.61908978      -4.15253815       4.87764873       0.00000000
O        7.40256111       1.26909878       8.97051772       0.14449752     -10.72389306     -11.69522920       0.00000000
O        6.21166573       1.87499667       5.92845159       6.59705599      -2.14373628      -5.00107918       0.00000000
O        8.75025304       2.05689236       5.54208603       6.51364359      -0.62104847       4.90149168       0.00000000
O       10.38352826       3.46850840       6.81856601       1.04654305       7.53878403       1.67201989       0.00000000
O        7.50777750       3.37886674       8.99394155       2.56297006       0.58800209       3.46654167       0.00000000
O        7.09388575       5.27711852       7.14877285       1.45610788       1.40791239      -1.17205597       0.00000000
O       10.75745380       4.64433132       8.75823890     -13.34670505      12.34051090      11.36925057       0.00000000
O        9.13351388       5.82177610       5.49338356      -4.25906384      -0.21363839       2.49222509       0.00000000
O        5.65784017       7.00064124       5.69425830       2.65369636      -1.79218378      -2.85917584       0.00000000
O        7.97389042       7.87134112       7.11747866       0.44489721      -1.87907133       0.57556110       0.00000000
O       10.27714038       7.21856309       8.83779075       3.56801813      -1.17044762      -2.67432517       0.00000000
Si       3.55880227      -0.40738443       2.24640660       1.88992852      38.13669322      29.11925538       0.00000000
Si       4.94194061       1.99091133       0.78540281      -7.26661508       3.06106550       2.99444738       0.00000000
Si       2.03481582       1.92853674       4.49757938       5.94357370      13.05644188      12.45500956       0.00000000
Si       0.98529749       4.04046840       2.52948288      -3.83911688      -2.77549287       7.54315957       0.00000000
Si       1.85732075       6.23879439       0.93034116       0.66668453       1.09661699     -11.23527077       0.00000000
Si       4.84805342       6.12535796       4.40908129      -4.12129280       3.12292525       3.58072410       0.00000000
Si      -0.97901011       9.68063594       1.23258320       0.09206510      -1.41303906       1.08988141       0.00000000
Si       3.50589324       8.53639761       2.49918181      -4.87813554      -0.69462860      -2.42861827       0.00000000
Si       1.07222368      10.05590063       1.99799311       1.74224203      -0.03719786      -1.17205244       0.00000000
Si       3.66972427      10.05200567       4.27006483      -8.33214796      -8.52612797      10.17773125       0.00000000
Si      -0.49326596      11.35607740       2.95156744      -3.78149240      -1.67661876      -1.27980579       0.00000000
Si       1.97464464      11.35116616      -0.18207338      -0.45266974      -1.11767628       0.68938909       0.00000000
Si       0.65545320      12.76876783       3.92875313       2.49276373       2.15754082       1.96538106       0.00000000
Si       3.19249233      12.54273285       1.34423924       1.17899172       0.58560382       0.85533194       0.00000000
Si      -0.78829394      13.41746049      -0.06826594      -6.22166317       7.18522416       7.04347964       0.00000000
Si       1.97235236      14.22141124       2.55825861       2.97803043      -2.37992237       2.96073822       0.00000000
Si       0.67449226      15.22348066       1.27490558      -4.38338573      -0.88154826      -0.04484176       0.00000000
Si       3.73500541      14.88716702       4.36422186     -15.98782790      15.25674817     -18.72886149       0.00000000
Si      -0.62717844      16.62974358       2.91167812      -2.18168971      -1.32158914      -1.22168428       0.00000000
Si       1.61386625      16.60619615       0.03253107       3.13453828       1.84500228      -3.03071958       0.00000000
Si       1.22209088      17.75416283       3.62350598       2.56100525       0.74689200      -1.84776822       0.00000000
Si       3.46736877      17.77842565       1.33143335      -8.72019927     -32.74623642     -35.23267071       0.00000000
Si      -0.65512431      -0.81201104      -0.92306958      -0.71385126      -0.47198924       1.38797190       0.00000000
Si       3.04705192       0.04227049       8.21893831       6.42467156      -4.36830495      -2.94936876       0.00000000
Si       4.80093577       1.85638771       6.36482875      -1.08967153       5.54625267       1.37412942       0.00000000
Si       1.85076616       2.19011377       9.81554555       7.30260864     -12.09847009       7.70310571       0.00000000
Si       0.69158237       3.96718992       7.94137914       8.91090868      -1.83154919      -9.37643474       0.00000000
Si       1.81553867       6.47885042       6.18332796      11.63946649       0.31950872       3.59371130       0.00000000
Si       4.83592989       6.08875275      10.18426467       2.40568870      -1.24063547      -7.78778212       0.00000000
Si      -0.92209995       9.48964595       6.40746595      -1.91270083      -0.54027201       0.36130437       0.00000000
Si       3.55616401       8.35006992       8.16347024       0.42584279       1.62924852      -1.37454888       0.00000000
Si       0.88732192      10.06679506       7.32965819       2.11985446       1.42608631       0.35384988       0.00000000
Si       3.94424073      10.27319216       9.84050348      -7.74978669      -9.39162700      15.50883250       0.00000000
Si      -0.91129067      11.61602728       8.46620733      -0.28260756      -3.92152413      -0.95400923       0.00000000
Si       1.88102946      11.18158903       5.31833425       0.46262412       0.87476295       0.75348836       0.00000000
Si       0.41658018      12.80464611       9.62025547       8.57725587      -3.74017529      -4.89879066       0.00000000
Si       3.42752110      12.65313562       6.74694065      -1.81437996      -2.35732584       0.90920439       0.00000000
Si      -0.72799681      13.85008903       5.44150105      -1.07046312       0.30627016      -1.05221853       0.00000000
Si       1.85678299      13.60107100       8.21854002       2.52909965       2.57265980      -0.75825117       0.00000000
Si       0.56005689      14.98276257       6.88434493       1.42989103       0.10533141      -1.25560781       0.00000000
Si       3.47429031      15.22360113       9.56139426      -2.36416675       0.35218018      -1.04429752       0.00000000
Si      -0.66208987      16.50890339       7.94726727      -3.95572152      -0.83300079      -1.11235692       0.00000000
Si       1.82227450      16.45166299       5.30378891       1.15803952      -1.63594120       1.68774686       0.00000000
Si       0.97988459      17.40525167       8.79264206       3.90584721       2.09871469       2.43083465       0.00000000
Si       3.49246183      17.66272130       6.44689647      -0.45431920      -0.06520422       0.21718243       0.00000000
Si      -0.44119075      -0.99532263       4.78695646       3.36813276       3.25812379      -6.39944212       0.00000000
Si       9.17310166       0.04656852       3.00755571       0.38150551       2.65033401      -1.95849169       0.00000000
Si      10.49865666       2.41529950       0.80576455       3.28620800     -14.53614753      -1.29860654       0.00000000
Si       7.85923247       2.21747049       4.40471551       1.94783955     -13.07378023       5.74122441       0.00000000
Si       6.22458572       4.33307943       2.57967899      -8.51531934     -10.97137656       5.83534948       0.00000000